Random atoms - written for EnCodeVentor tutorial

1000 atoms
1 atom types
0.0 20.0 xlo xhi
0.0 20.0 ylo yhi
0.0 20.0 zlo zhi

Atoms

1 1 5.691730248205273 4.710145245529757 9.892434858733745
2 1 15.176306130221013 8.257110975880922 7.158433271984064
3 1 18.222342996927566 15.807545219560877 11.419995737962644
4 1 6.1178574913437185 2.707104920496868 6.833853596422355
5 1 16.941674257792158 13.822161363799266 3.733480852129205
6 1 1.1776918917076107 19.08171927292929 2.393431878806016
7 1 7.852318532083342 9.841978274635135 10.593436093956669
8 1 17.616010983679004 19.313161730435624 5.887362783131557
9 1 10.790501478602854 8.165602343050221 17.87966019003739
10 1 10.883873855015544 4.980063124422158 4.428318608435342
11 1 3.168658421109587 10.65438815057124 14.079260714412927
12 1 3.4349540305158155 12.453540205506151 3.0166511339648605
13 1 8.000704931095196 8.796139624148342 8.566037188755542
14 1 13.43271808223 2.1587213362543944 1.2509946363658475
15 1 2.7185799847783465 17.23000077927125 13.412222827225593
16 1 18.90510762847918 6.991667139377505 13.871203474767617
17 1 12.405162355481112 1.986350830200796 8.984094412365165
18 1 1.8210225132119873 15.984424212516466 0.9577587788337993
19 1 1.1013767948548603 16.192643110991593 4.214053412109735
20 1 9.016702405041205 4.590144860692035 4.5345195438514345
21 1 1.2666839548169806 1.882593193400821 19.789727956449713
22 1 11.694150519715592 9.537502490465473 4.01332602629118
23 1 5.8094469359987455 13.470440595714596 7.071339588063006
24 1 14.164347942105236 18.127021444427733 1.6226337024230575
25 1 16.81647903160304 7.891804560009619 6.0183096867013
26 1 15.86043580686811 8.310098851394937 8.273866769479323
27 1 4.44239291868916 19.70915503037911 3.123083952282528
28 1 11.440674566633493 9.21894785224348 3.2153518960058913
29 1 0.6755015772349049 6.035525987714799 15.94316886285787
30 1 2.346214520860559 3.616317472949433 15.325626099759962
31 1 9.430405611636852 13.882696634957142 17.82286659404914
32 1 1.000237411935454 11.641144011252544 13.217489050074807
33 1 2.00263983064648 13.157311046051909 16.376366495389473
34 1 9.352987115915784 0.28492463997279005 6.661222074624074
35 1 11.571132539724333 10.722239258502334 3.401064244985059
36 1 8.212666883754316 8.759996116230118 3.181760464405907
37 1 1.098898444324814 4.824872272655945 8.686639964475109
38 1 1.5147320671336328 6.83202862712486 17.978697583836635
39 1 4.769944467854197 5.018682065283018 5.373054080102158
40 1 7.189434381384321 3.895152726741955 17.502099560362325
41 1 4.673542970976154 12.224186499545876 4.914463809004466
42 1 13.773031345771127 17.101669588550173 9.240939409140228
43 1 15.044618211124137 10.796994166689682 16.9211435956099
44 1 14.640385383507397 5.882033454700657 0.2914508177616826
45 1 7.648998253360295 7.515198959991181 7.870426586388383
46 1 7.7072333786557 12.698462863940435 4.428295376225795
47 1 0.6124141494815927 9.8936541068678 2.914830331344842
48 1 11.857205686362605 3.9079200881460174 18.744441077590995
49 1 15.70980596116657 5.245585270911848 4.412440666259306
50 1 0.7367461191795699 19.566592414710392 16.520864426819188
51 1 0.9672373673196066 8.43550434759452 1.933403367908293
52 1 17.366709833464704 16.524389132086654 5.639532328584032
53 1 16.78786630314619 8.867482271932278 2.179991721470056
54 1 4.871338448200246 14.971436096587636 7.2984934535820205
55 1 18.892533063770443 2.1971607681436423 9.134924944291662
56 1 11.00079943196725 18.67728583516569 18.973272516012653
57 1 1.5005194037956837 2.224394437527215 5.5580271947818805
58 1 0.03954016908806812 7.477859875069237 12.747743890313432
59 1 3.9196591315349028 0.18728959245474908 8.60221272983625
60 1 8.611691746286333 4.6277014415357165 14.923979518128721
61 1 12.012368114343596 7.1197531426039635 16.753761884564206
62 1 10.484203959161313 9.028555053128635 8.074148431872555
63 1 14.713293717094473 7.973895290026665 7.476786066732504
64 1 7.432608136003845 5.738241136696316 3.898092196133669
65 1 1.9860354980635497 13.578805555198594 7.258204367104413
66 1 14.912471081911598 11.209844459404497 9.54899312980893
67 1 0.3878118984642587 3.8986452327204923 10.149483537965194
68 1 6.241812369167066 5.119171839387098 3.254163995922106
69 1 14.86810772773061 6.530645536272388 11.2800555040749
70 1 11.676267030672978 7.879327090458705 3.368839084060302
71 1 12.06189941435703 4.249148860206223 15.712631058739358
72 1 1.7134347906397895 13.538972638585726 2.783126504483824
73 1 0.3628193679479508 3.9862156157269713 8.34797928808198
74 1 13.597609546690624 16.227023776515704 14.384905796240115
75 1 9.350248950007243 10.814079318434526 14.410778964590968
76 1 4.230559253014874 10.83024040902373 5.315892644799183
77 1 4.6540740414124375 1.1958183813500067 8.355308416415193
78 1 16.21933367009988 1.8974664387114304 12.160125924313023
79 1 11.908108211937405 10.280029759998113 10.687525265002847
80 1 0.11381325221227145 0.36363765971881623 17.031107402305064
81 1 0.37073235148429307 14.468985610920011 8.115403415450658
82 1 10.92918786151425 19.840707920661714 1.4733881326503928
83 1 9.081367233460094 1.6327693990116265 13.206731804256096
84 1 2.9365889096848274 5.21149287328673 17.438846332487575
85 1 6.090171862256144 17.93624611745303 2.8019368341623885
86 1 6.838292962939105 19.245895539719008 0.0247517821197496
87 1 17.120390685713783 2.482306000416228 19.730560983599116
88 1 17.114283261812748 4.058608302946325 16.68912028289
89 1 15.642192444968648 19.39085529863224 15.22057041372635
90 1 11.199441180153524 14.37276517231547 15.35338084605794
91 1 9.466616070674894 5.124655271888436 4.274172624362
92 1 9.482758392883941 14.624510065147607 15.333806993819547
93 1 14.243965716627528 2.7895970201312226 5.92882776753386
94 1 5.297721378086704 5.884590236291867 6.798881684611646
95 1 10.097287655955753 17.20615841134719 8.633477744917215
96 1 1.5204490294033013 10.58186298509857 17.704698162046462
97 1 8.341322406433429 17.66613543277637 11.250837016999554
98 1 14.373354668978632 10.277928890758812 7.646643552637345
99 1 6.320799084156787 17.671934244864453 9.883019465410745
100 1 13.189754342115164 7.819754830502596 13.508803723750491
101 1 4.112523073581111 8.69502685933796 14.603970242605062
102 1 11.524225721134052 8.644040622029925 0.5614561326900791
103 1 10.947861495303714 16.406648770035254 0.8368526879078608
104 1 13.504691649064489 18.771671624019316 10.527181243501598
105 1 5.444710577593693 19.223937811081555 1.4484615825106073
106 1 15.485261500348539 12.2747688132994 11.02560498746943
107 1 7.322157182253379 4.606604374658067 7.127502922774395
108 1 5.9832886331797415 19.912892859376047 18.00113562179481
109 1 16.955011113034377 17.893184304017524 5.471525884468025
110 1 9.889877387712884 4.918319016310968 4.605401015843578
111 1 11.886513603721946 12.38090726419924 2.9643093990989455
112 1 7.316354162680168 4.6352036111015416 6.975892754840167
113 1 18.303847096561533 13.009998806443768 10.05463532880663
114 1 19.608501965606298 18.41777321740284 17.85596955327338
115 1 12.872866738046762 13.79608731948349 16.34107222182448
116 1 6.553745575697292 1.9491646710555233 1.8258575413729927
117 1 3.2302974342928192 5.03205548791557 15.960139570279336
118 1 14.23257659632446 2.5369518160866322 15.725279693368071
119 1 9.028478163629172 4.22185274580825 15.775654988932883
120 1 7.339881664430859 9.938940015842064 15.206086721862453
121 1 14.28047460725262 1.145984978619432 0.0032016978424653786
122 1 0.44525157495261203 4.920397622388362 10.730418357914541
123 1 9.348188292932635 18.02617821587699 15.407188716477373
124 1 16.894173488013685 0.9025042761133895 6.771896170032852
125 1 7.287519017768014 2.303427933960751 12.357564366600256
126 1 4.892352648833267 16.55082204559912 14.006868324335848
127 1 16.956010214545262 5.615502652860506 17.06817419341681
128 1 11.343463923534173 15.755720962498563 7.035378310770497
129 1 5.779413747458064 6.230654778388698 10.54970792387137
130 1 0.15396536140504402 6.917629882004315 9.255051091328356
131 1 11.210321144643016 14.23503792517792 11.222888942082669
132 1 2.6649006753836946 14.205101006333066 0.7699825801092319
133 1 19.315220705471386 18.303780250648046 19.128762704696783
134 1 3.8086883781462166 4.850970700458388 17.32867588948612
135 1 17.94944183133551 16.951197582637036 0.10954540398083967
136 1 1.4214463839850011 9.089034625606855 15.869891714192434
137 1 3.454489890392929 19.701262849655155 0.14964674501309227
138 1 13.829504111235785 9.614256375536009 6.643031921369673
139 1 0.05662294104560317 14.247404246071975 17.770925579857213
140 1 12.69541772888208 19.98888119269836 3.318834000538009
141 1 18.07838600182093 15.721274453926654 19.947922735066367
142 1 8.872325291837997 1.9548813792300423 17.27999915405468
143 1 6.120868598595393 11.602856230745665 2.871454516292151
144 1 18.059938182828155 12.474287866363369 6.719383544137603
145 1 18.306186850383156 7.215899047740986 4.212667842192617
146 1 14.450995707495228 1.1261482997461925 15.67008745685095
147 1 6.154388621994304 8.845068318493496 7.753299182187588
148 1 1.069751613826706 5.1371145326551915 15.469674596175484
149 1 11.617369319538788 0.7804525153504205 1.2342730902266674
150 1 4.862122452831638 6.45901518344462 5.966159785823535
151 1 19.206306039342536 10.423754886514862 18.524528854643872
152 1 10.271992591244425 6.782541310132819 11.573246149168828
153 1 11.829543785399437 9.19681294226923 0.753397481662772
154 1 0.5040320511119445 10.757274074904444 18.939813183398424
155 1 1.6297018309861677 2.7058768914192766 15.476378497357004
156 1 9.30214403823224 7.836385663107337 4.762883477514657
157 1 7.085058548925199 7.504810783476675 2.1939821334851772
158 1 19.34225493120175 13.526412824821655 8.039010457411408
159 1 12.26064981346191 1.308992234793216 10.87937652179897
160 1 16.8742415949662 15.041407445397947 3.0524053635654425
161 1 16.16371980514779 0.8147449800002549 5.17249732611365
162 1 9.088437860630279 10.858908803812069 4.885302707033372
163 1 16.67845242816536 2.0176285423361673 3.5023741453110113
164 1 9.44310065207646 0.42507552936968507 12.573045211087145
165 1 8.454206181160451 13.328956714721855 1.6555768733229503
166 1 8.654879986448194 13.877195683108873 13.177220785693445
167 1 19.55669281935474 2.0872692971559204 17.89738775491253
168 1 11.294935186916959 16.947342500927164 10.641523321629276
169 1 8.032277166326251 19.863150640437134 18.612451846331282
170 1 10.96004185535232 16.049377349827736 15.772988039213478
171 1 0.335103529708598 15.971961683622812 8.21431521454964
172 1 12.92547755122732 8.684686214967432 9.289080601645159
173 1 18.052180336241474 1.9153199726450665 13.811045614167856
174 1 1.401249241896254 2.8287862013472997 19.064723981472863
175 1 16.43156915030515 10.298455857635432 2.0686031601509325
176 1 18.43396931175111 8.944603522644321 8.220322040123653
177 1 2.5429055033507364 6.818895494005927 17.50466453943118
178 1 12.495456993521273 4.929724770951642 18.694382321107604
179 1 11.391844242516882 14.925209360716687 7.382769493610897
180 1 10.386852286773117 16.674024633734028 1.221051159322668
181 1 19.059143406227705 15.088939398146135 16.47395406975689
182 1 0.5662983304532787 8.355248049115772 1.7668863362496467
183 1 17.109631592715218 19.929258407812405 18.691453402072582
184 1 0.7541857315613454 16.198573041066332 18.371519468493254
185 1 8.229762329693875 1.2123182762127493 7.049395845568666
186 1 5.194545170322947 8.397505828090017 15.915810469094716
187 1 15.448028316637112 18.679518438173016 16.87045329286018
188 1 14.144376779365768 10.313683822020467 15.17668344757703
189 1 16.41758772636884 6.28828983210169 3.830478915812039
190 1 16.883315970428022 19.160900215506203 13.365120697951982
191 1 9.560404227172741 11.775122492766773 13.67550724527957
192 1 7.626057489391503 0.20752560692476552 2.5627592077131345
193 1 19.871595840123423 19.081721229227117 10.854362882730662
194 1 7.446229346200688 14.384113215214152 12.373139337562542
195 1 14.84165629242366 16.927392860040538 0.6550802838961123
196 1 0.4796344189896362 14.094379375769119 14.652973725175064
197 1 18.633729895635987 1.311526107983243 8.685344215880965
198 1 11.38360867725822 5.197108110202542 8.708247207525957
199 1 18.38952731491557 6.267377017119338 7.772947831891264
200 1 4.313368071796912 0.28068025685519915 2.546678705442744
201 1 9.524710703414076 18.872694879207494 5.912843983582401
202 1 10.805655282811253 10.882992181044335 12.888057954031446
203 1 7.577858115837768 14.066136834484729 15.934572320741092
204 1 0.8824532184375355 13.259711966276848 17.738815459572773
205 1 9.799229659888011 16.1721187975671 19.50949269047464
206 1 8.178971844183145 19.32363109043294 16.73236438094842
207 1 1.507080948343198 15.034223434733304 2.6385845773471273
208 1 7.784864083822192 8.249687196890447 12.82033081225379
209 1 4.7527147348171255 5.9526669840740105 1.1093790248507251
210 1 13.382235219367688 14.236047401934897 0.2817533924742466
211 1 18.443448341629956 7.420776564708207 16.795595085705394
212 1 3.622136105133902 6.096894250516938 19.926793234942252
213 1 3.0092495555921572 8.183944986889228 18.82875090829799
214 1 15.032999292990075 18.74645771401219 17.787931615247345
215 1 14.675737452678732 2.287003166280537 10.40636766416277
216 1 17.69066210013272 18.172592376030728 17.7929749470278
217 1 2.461252456495968 1.5406478588870565 9.98451664536679
218 1 6.2546190816767355 7.598052671686162 10.32027090360969
219 1 14.277856750607423 4.021990334538019 1.675509554283483
220 1 8.777127707129079 2.8602435286520556 18.704152191682727
221 1 5.386523311834748 19.736524569985036 3.225322040606
222 1 8.45879195615597 10.673721276115064 3.1728123166345723
223 1 1.94719217137584 11.49725205312204 15.986754800410537
224 1 19.298317942122814 16.854810918907074 1.4126382629330436
225 1 3.7805434429088924 1.4302497408623505 4.201571807538443
226 1 7.612260080020652 18.53379962760276 14.574356161106973
227 1 12.50160826038612 4.916502617804914 3.7382750824867372
228 1 16.69984665755138 13.672805655613637 14.42167223930914
229 1 2.259184807031378 4.164518188872021 19.690060879858954
230 1 18.604422417630303 1.600093815663135 4.106743041062657
231 1 18.98064926151456 13.59748277828463 11.49429960483653
232 1 18.480915226635215 14.267944585987953 1.3972717054082562
233 1 0.6297151254133215 11.259917266753295 1.6083076849818
234 1 17.163911051126156 3.325063133261852 18.51130518510533
235 1 5.447735891889165 9.842254765200488 11.406231906519068
236 1 11.764912598123933 12.845195041171918 9.59102853614957
237 1 7.364447494124937 19.5130054564521 12.925190443128027
238 1 1.0005163382892124 8.196485320936874 14.213743033760235
239 1 9.34269015810822 3.7952055605731982 17.531712619073893
240 1 13.764860813506893 17.41387811422949 17.438383935981427
241 1 12.337548880365382 18.823882807888637 14.219826430532576
242 1 16.978723523667444 17.587830554397005 0.6167485337439249
243 1 16.15802362844692 18.591464686151802 0.9862794354808213
244 1 19.53648541621743 17.505524228671284 9.799136740047643
245 1 10.301832387777555 15.736019669741012 14.485270674436695
246 1 6.9829210504596535 1.6824926341336277 6.258116139105225
247 1 9.773414777249682 5.928930796026619 18.797116320813533
248 1 0.36538207929733835 8.691719242049736 19.811444052380523
249 1 6.425131877472987 17.4439205915521 1.3742926242414844
250 1 3.5555128248019963 10.900469105072258 18.594041657197003
251 1 1.6371118276620544 17.94069077734498 15.38651706016988
252 1 4.177681208982246 10.449427151579581 18.437868838262883
253 1 14.924453678961072 18.371343963482808 4.8345909680713595
254 1 3.043940122001123 18.36479028610898 0.5359265178947759
255 1 1.7129943939653525 19.698852823512173 4.651304896654407
256 1 4.729867899603986 10.652540810648347 11.736896626090456
257 1 8.417170103652285 4.999250711111336 16.87655802964243
258 1 8.982316805414687 14.247568495888894 7.023058098952857
259 1 8.72552674320582 9.87640567724123 13.8242066647529
260 1 12.748244433189761 2.56655853368404 18.328989142562925
261 1 16.949242311748666 11.260232198758128 15.737772377826285
262 1 12.596609122696051 6.359139477827458 13.154250659587284
263 1 15.85539043951053 0.28614628791824304 0.8163251612219335
264 1 12.780643602186403 3.7559151577653815 0.34406041912627305
265 1 3.9242574394988528 4.530498726206842 1.6513674010940127
266 1 8.727340943810793 4.247388617715497 5.802578538339742
267 1 10.454291757765246 8.858926566320955 10.297263762875797
268 1 15.979121949734678 6.8731898510409035 15.643066046345437
269 1 15.647931568470677 0.1619007101937764 8.575405836540055
270 1 12.29589999669128 8.08028158547267 16.773461916534135
271 1 18.697913810286618 1.5390445787281504 8.896753289525206
272 1 3.4244916637375145 17.76725974618833 7.81824862100234
273 1 13.828114711347027 3.703625828702215 16.37948094520264
274 1 0.2863988989625521 12.828068773097215 13.69449778530947
275 1 13.976167575836174 9.021840215449696 4.777685353147014
276 1 12.473822475149685 18.562580233277618 7.559632567704046
277 1 17.751755994770807 2.3365435789768796 5.732865031974955
278 1 9.677333910254674 16.122975114132156 16.20273106036312
279 1 19.404382003063308 10.033628285947113 14.690660380760967
280 1 19.97430988121445 17.21952186375485 7.612724800729622
281 1 11.121405192516796 14.031181146347887 13.941743145004518
282 1 17.644841735885453 7.452287288011538 14.428376820071097
283 1 7.779765033309567 10.572172682830756 2.3177524192753296
284 1 18.09596432727538 14.739893540279631 18.5059672880833
285 1 19.11333937710911 2.5154450105774906 18.20770660108498
286 1 10.744863709760144 16.124191735382457 14.007462396055342
287 1 15.673575932353017 17.404233514354036 7.175727398516805
288 1 11.590968804510101 12.320296886395317 4.773796565323898
289 1 10.528914024418887 5.145377910224644 8.53359904503341
290 1 7.434776252437585 19.753347159835027 5.727072384333011
291 1 14.108571769987641 15.579523563115627 9.036272864542344
292 1 16.791830878720422 8.515320467910614 15.603237756559567
293 1 1.2824129158771425 6.042353740845812 5.440319640753937
294 1 4.197508934524428 4.846914931598201 14.848999433624112
295 1 9.651649978810736 10.798864479087111 17.749441954094422
296 1 5.935409144399674 7.916577113308443 4.175883767797948
297 1 13.601102263288784 16.907103168192428 10.484071790252877
298 1 17.231099596706027 1.9613165900174079 11.079395742215425
299 1 18.347436219642887 15.498810744012602 2.964419058314842
300 1 10.557089171670137 5.970944332679586 4.58433092157639
301 1 11.776263990491184 5.633321975325643 4.7026616169795465
302 1 11.496176170186569 14.257270649761441 0.37247164360048046
303 1 14.408740389742771 14.408460880326102 2.697188650224658
304 1 0.6761988892133997 7.415524367710054 17.678120819630696
305 1 3.999654321111006 15.627841378143362 1.4396340097860882
306 1 10.360860641735792 19.399696261972004 9.77921085780181
307 1 11.218771454898473 8.184842047058272 15.402854126037832
308 1 4.185529426911261 12.907883537906892 11.251668088439734
309 1 2.101583371471012 6.660495424240391 6.990409630886694
310 1 15.148629344886086 3.066577255949998 12.453303826613379
311 1 6.779130133154179 12.596484682624494 6.459475555376395
312 1 2.515731230386795 0.957236142138731 10.764605490068153
313 1 1.7977123875914658 17.15187667706369 6.259212086248132
314 1 8.450403590397311 16.167427407532045 6.29857858833605
315 1 12.950666006425205 9.161396277070486 2.9581569574607602
316 1 5.010486056484822 7.665222317957969 16.18255321167441
317 1 11.22676588939466 3.1500105366489572 3.5088570345525727
318 1 12.25162338001261 11.204510883390224 12.773646502685594
319 1 14.151676510656245 14.689230086179705 14.88218569654666
320 1 3.407618675573938 0.4096686737755961 15.325799982314368
321 1 1.4571973192312893 19.641520034272915 11.477461553153498
322 1 10.68522078123847 10.390929473570772 11.897666904183264
323 1 12.988381963498622 4.266080837772117 4.677382513106407
324 1 9.188247155506328 19.879870866659168 8.84928815796825
325 1 7.714490645323908 13.361552371798371 11.11054649543302
326 1 9.441854533841127 10.971030459251804 0.5318061648717176
327 1 2.7019922933692464 3.138125466690307 14.749382149694544
328 1 7.622966869410712 10.077181076434856 14.3000531122569
329 1 9.396303823344889 9.582822232511779 17.84166567322995
330 1 3.6055839424902825 19.916967403466412 3.9804663152176722
331 1 11.59408077747382 4.204750986546673 14.886780496007969
332 1 12.998848192091234 1.2753554831056269 1.1620671577018804
333 1 10.234853461507216 4.739595179966926 9.615955805266152
334 1 19.80621850979223 16.771816488578466 1.9555693268484875
335 1 3.866084750639456 8.304023973991717 3.849887624820094
336 1 1.1328336034541686 8.60107346165583 8.008660615482952
337 1 11.465072337139192 18.612993578950306 1.5594063035652517
338 1 15.845553214603427 16.245005738736836 3.0483692255295636
339 1 7.3941465084929625 0.2452022383124608 15.727637181671007
340 1 8.183358160399868 9.471800490914877 9.579568033961925
341 1 1.2051370072255474 1.4511648757744045 19.17683033184374
342 1 9.404033764605968 5.675299791742665 6.709605741451179
343 1 16.929388975879686 6.2062426177629915 15.830700043427612
344 1 9.366051873993978 6.514976278053519 2.134605868800603
345 1 15.25510842162534 5.552734023573301 16.05035149984674
346 1 8.97288839414417 14.302333946963534 5.461733492785241
347 1 18.792179120762313 10.667485736207967 12.6227352506018
348 1 0.23377875160642825 3.889477777044863 16.07916723587831
349 1 10.952147729542702 19.446442462891525 17.354253000268145
350 1 4.398383201217184 19.089019197257933 3.3075868063953684
351 1 7.208287397226991 18.857772122637797 5.836688275197444
352 1 7.311937250830363 12.714997718096551 19.84248770288961
353 1 0.299277927292525 6.576283157675922 9.345436170154684
354 1 7.648538943179091 2.3549825632998367 4.188547624190642
355 1 4.894172843659232 12.748337657958613 9.253459981792698
356 1 13.766367409414444 3.3416501959869938 15.061328173485593
357 1 15.114686877464361 12.527036013646967 11.788025423925951
358 1 8.69501848026708 4.39612639197458 12.133888812922224
359 1 17.46325918437143 19.6368846489433 9.51964929961962
360 1 13.794934704231036 3.836576938564722 18.989201883203233
361 1 9.530342641360734 11.77388206029878 0.49713176579907703
362 1 19.815999750478156 0.9598444694670683 3.608783959635713
363 1 17.372528650868368 18.601731040434995 16.6442133543123
364 1 5.831233285053951 15.23366767853229 14.309047885063444
365 1 11.631555226091885 19.636488855097 4.280066265965128
366 1 5.753594763141205 2.030410202722064 17.984243669239365
367 1 4.956616230984247 4.966549031488552 8.521769298270616
368 1 16.788869465245103 2.609423067312777 6.099467365673668
369 1 9.723863089149356 16.369385792562834 0.29474590159442204
370 1 0.27145884567296497 13.637590705255896 10.603902636303745
371 1 2.301717512422774 3.9379270163077296 5.563023304609858
372 1 12.870119118747528 16.08084140751459 4.000045726450456
373 1 17.331989816611568 11.503604519070203 15.022125789268495
374 1 2.5246071843579387 1.3546952368104126 17.471074318856147
375 1 3.752007789328846 9.53972557156672 6.216888838076797
376 1 8.136555422054732 18.264338162344266 1.0125343399084663
377 1 17.993873777454137 17.306770158344058 6.7904400736302994
378 1 11.231480951946498 19.210366953110835 18.759234659044356
379 1 6.531369021666993 16.89466470459156 15.37426790562604
380 1 2.8170937567382137 4.827665018594509 5.878313198735794
381 1 16.48088224358162 11.221561563843913 2.76305067763136
382 1 5.408175780406708 0.6709358664719822 10.540330954780737
383 1 0.6043632371885321 10.33378626345012 0.4983271440908954
384 1 19.868905431786217 6.165396531583925 18.737934310511587
385 1 1.3709559021504414 5.703721732510079 15.914263819946171
386 1 8.624620592174498 11.052252306990745 7.61145410508332
387 1 9.014032057319735 7.826797865093584 3.7958983646470457
388 1 10.289931845628846 7.919026598263259 14.837191129264369
389 1 9.343557378500325 15.291875688509178 16.015735055006004
390 1 5.1938818304758545 9.332143322287 9.618807088873476
391 1 13.490367231829977 19.359657126786608 19.568832356949873
392 1 17.869648296148696 3.3663038627815034 6.354734931227548
393 1 19.27024056115304 3.1683582793085696 4.116052095694345
394 1 15.176166879501613 0.268451390043436 3.5346472734516587
395 1 12.521584638931923 19.094057879327444 9.7502299985583
396 1 16.59138052714481 19.338195984097432 5.500938603391276
397 1 14.384955268413348 7.771168497624772 2.4554417772192583
398 1 19.583328467154143 16.33977095382175 13.310608681357047
399 1 14.941414259954701 13.37135327264341 10.943421478224542
400 1 14.052825349933487 13.904451792588272 17.233112749833158
401 1 1.4774918451381835 1.593508460246773 4.369113355895761
402 1 9.812350888779894 6.071262206705823 17.61020197088222
403 1 19.874517704654647 10.675348254716347 0.3803285830224601
404 1 11.582861927156522 12.958166112001908 13.27826696422633
405 1 6.655997473080932 18.88101426079061 0.5824186959988076
406 1 0.17399851825377066 8.622104079770086 0.6126796190551542
407 1 17.616463194782185 6.625439571115188 12.376929482829242
408 1 6.915250982214511 3.2643719575729757 16.688078903589393
409 1 16.38917632737456 9.619013258651407 2.7124858548968156
410 1 0.6908754435132125 2.6785214536071345 11.457985739044492
411 1 16.17176307865676 4.082263422310371 6.776252344510834
412 1 10.075790869335826 10.90882773220037 18.49956857475072
413 1 4.712914006865625 19.432996752598882 17.822192042372617
414 1 9.840518795958854 18.172742581423435 18.652370396612255
415 1 15.924073477721537 18.539998690821587 4.485835557130864
416 1 14.088278814321836 12.720360859715221 14.576870260531793
417 1 13.786663053659122 9.847336066879894 1.17372180017433
418 1 1.5840759448707176 3.1637838458382794 10.951279063691878
419 1 11.849811069863282 13.44824446807769 6.502834708318137
420 1 12.495638040613851 19.765943769511896 13.052478448232044
421 1 3.1994591517121895 15.445208641935082 11.00637899339063
422 1 2.301045083849771 9.05001011638079 12.937916077723619
423 1 0.16138633503521627 19.561490096433676 2.590865725788769
424 1 9.389011174258195 15.902381683112203 12.985054067132358
425 1 6.796847071616385 10.247573264901318 12.424836766287331
426 1 3.4717641316715353 11.388386221378077 9.685326788184508
427 1 10.337977845122568 15.38409697403454 12.114199639027492
428 1 9.009779689745297 11.936558583035204 3.0556639495469606
429 1 13.156859366060639 0.08196007153539409 5.077000520242498
430 1 4.961773354775094 7.9315808211374055 15.395660139993389
431 1 3.706330330786347 0.27141601785227065 2.9501024074415905
432 1 15.406393781529282 6.807309739316656 15.537804926526524
433 1 18.36089473059103 19.544132137308427 15.587716663610252
434 1 0.17916502401152057 13.943420456331769 9.761857637597942
435 1 17.870781035738265 2.8667606528141665 2.4338772964905964
436 1 3.8714388015729395 9.727198973818446 0.08185274798586883
437 1 13.520808025722339 3.1518637956641915 3.1081630478584255
438 1 8.90372191670818 3.9710784816188993 10.764206734114444
439 1 3.5396804416090677 15.197639484778204 5.400633920128581
440 1 11.728666017666804 14.686542284547837 0.22567565954240143
441 1 18.750538107528747 4.113301589160264 4.080740422498968
442 1 13.352107369637562 5.209825157491073 13.502883496195974
443 1 11.018401518810549 16.148878549348517 5.043681492760388
444 1 12.799189486610222 15.94936639171543 13.738856040932363
445 1 9.720635014789746 10.694630821206182 8.776101444616494
446 1 11.816599363394571 19.153360519063718 12.772797847657998
447 1 12.69446328604731 9.732750927053003 19.683680562081115
448 1 18.181316417076005 15.74385952439214 8.119726329938164
449 1 0.05017816847648238 1.8237423908859696 18.845434692476537
450 1 14.47878317175749 8.673397852334194 5.2345157476074
451 1 10.646363799676099 11.26008764170299 7.824584318902376
452 1 1.7331611178316542 14.42445034800539 2.392792675750155
453 1 11.45428311525161 18.478241510884477 4.011344362096423
454 1 0.34399949139339636 10.754605920486956 1.9028815397000542
455 1 11.757358591473393 6.401905553727523 15.963132636453366
456 1 7.911393371657511 18.807730459928095 16.413861846628777
457 1 15.282839547656069 16.193784008523195 0.04994562433307426
458 1 9.841133914276117 17.20075720898778 5.416856522867142
459 1 7.266459163379142 18.98550640642251 9.731235167975058
460 1 10.41712855262761 8.293534595561752 13.246602254412387
461 1 9.859460310056358 1.1563181796614064 12.882388076464949
462 1 7.083394870693304 12.912778472716422 9.716312661768775
463 1 5.455179149727794 3.2408672884875345 6.1225192706309155
464 1 12.431684662633867 2.316257484625861 6.73224162429756
465 1 14.182845614942075 19.223712058053152 4.819522756354891
466 1 9.685684905019098 18.72789159151217 18.347506398855778
467 1 17.394983716124504 13.103178495516552 15.683219511181283
468 1 11.744624662863218 8.396602662407236 16.440255005668046
469 1 5.646327057032028 15.276031266864125 0.08393055552589068
470 1 0.5024324376065104 18.96982253004318 11.031222243984448
471 1 1.1510983217246684 10.252341417402995 2.5215625538605124
472 1 7.1686586635010885 6.732145678335433 4.771790106550009
473 1 2.0784522576754916 10.322040116960373 14.99812350124541
474 1 3.082800565051469 3.6559713830389784 17.724059619814277
475 1 15.917937164197706 16.58543246235656 3.608765254101254
476 1 15.389723036811409 2.923140239452222 5.644142821577061
477 1 11.378114187739872 9.2377648451398 0.9037875610575652
478 1 16.316969541184093 17.725601718159812 0.4407896271514766
479 1 1.4738624090703878 15.71054162601798 11.646946871934114